 Gaussian 09, Revision D.01,
 Gaussian 09:  ES64L-G09RevD.01 24-Apr-2013

 -------------------------------------------------
 #P MP2(FC,fulldirect)/6-31++G** 5D SCF(tight) OPT
 -------------------------------------------------

 ----------
 wah da tah
 ----------
 Symbolic Z-matrix:
 Charge =  0 Multiplicity = 1

 SCF Done:  E(RHF) =  -40.2021425961     A.U. after    9 cycles
 E2 =    -0.1626461499D+00 EUMP2 =    -0.40364788746041D+02
 SCF Done:  E(RHF) =  -40.2021188161     A.U. after    7 cycles
 E2 =    -0.1626895191D+00 EUMP2 =    -0.40364808335219D+02
 Optimization completed.
    -- Stationary point found.

                         Standard orientation:
 ---------------------------------------------------------------------
 Center     Atomic      Atomic             Coordinates (Angstroms)
 Number     Number       Type             X           Y           Z
 ---------------------------------------------------------------------
      1          6           0        0.000000    0.000000    0.000000
      2          1           0        0.627519    0.627519    0.627519
      3          1           0       -0.627519   -0.627519    0.627519
      4          1           0       -0.627519    0.627519   -0.627519
      5          1           0        0.627519   -0.627519   -0.627519
 ---------------------------------------------------------------------

 The electronic state is 1-A1.
 Alpha  occ. eigenvalues --  -11.20896  -0.94523  -0.54565  -0.54565  -0.54565
 Alpha virt. eigenvalues --    0.04361   0.08165   0.08165   0.08165   0.16894
 Alpha virt. eigenvalues --    0.16894   0.16894   0.21558   0.36236   0.36236
 Alpha virt. eigenvalues --    0.36236   0.48833   0.89825   0.89825   0.89825

 Mulliken charges:
               1
     1  C   -0.458047
     2  H    0.114512
     3  H    0.114512
     4  H    0.114512
     5  H    0.114512
 Sum of Mulliken charges =   0.00000

 Dipole moment (field-independent basis, Debye):
    X=              0.0000    Y=              0.0000    Z=              0.0000  Tot=              0.0000
 Quadrupole moment (field-independent basis, Debye-Ang):
   XX=             -8.4715   YY=             -8.4715   ZZ=             -8.4715
   XY=              0.0000   XZ=              0.0000   YZ=              0.0000

 Normal termination of Gaussian 09 at Wed Oct 25 13:25:01 2017.
